
variable stp equal 100 #<Defining a variable 'stp' whose value is equal to 100>

print "The number of steps I will run is ${stp}" #Printing this variable in some manner
The number of steps I will run is 100

region forbox block 0 45.8 0 45.8 0 45.8 units box
#<Refers to an abstract geometric region of space.Unit boxes refers to the fact that the size of the box is specified in the units as given in the units command. The name 'forbox' refers to the region ID so that you can refer to it somewhere else in the input script>

create_box 1 forbox #<Create the box>
Created orthogonal box = (0.0000000 0.0000000 0.0000000) to (45.800000 45.800000 45.800000)
  1 by 1 by 1 MPI processor grid

#<Create lattice where 4.58 is argument for lattice constant or scaled. The other value a1 , a2 , a3 are three latice vectors; This is followed by basis corresponding to each lattice>
lattice custom 4.58 a1 1.0 0.0 0.0 a2 0.0 1.0 0.0 a3 0.0 0.0 1.0 		    basis 0.0 0.0 0.0 		    basis 0.5 0.5 0.0 		    basis 0.0 0.5 0.5 		    basis 0.5 0.0 0.5
Lattice spacing in x,y,z = 4.5800000 4.5800000 4.5800000

create_atoms 1 region forbox basis 1 1 basis 2 1 basis 3 1 basis 4 1 units box #Put the atom in the box
Created 4000 atoms
  create_atoms CPU = 0.001 seconds

mass 1 39.948 #<Mass of atom type 1 is 39.48 [mass units grams/mole]

pair_style lj/cut 10 #kB = 8.61733033e-5 eV/K #<How atoms are interacting. Provide the name of potential and the corresponding cut-off distance>

pair_coeff 1 1 0.01006418 3.3952 #<The coefficient of lj potential for the interaction of atom type 1 with 1>

group ar type 1 #<Group all the argon types. All atoms of type 1 are in group refered as name 'ar'>
4000 atoms in group ar

minimize 1e-7 1e-9 10000 10000 #<Minimize the energy using a conjugate gradient step>
WARNING: Using 'neigh_modify every 1 delay 0 check yes' setting during minimization (src/min.cpp:187)
Neighbor list info ...
  update every 1 steps, delay 0 steps, check yes
  max neighbors/atom: 2000, page size: 100000
  master list distance cutoff = 12
  ghost atom cutoff = 12
  binsize = 6, bins = 8 8 8
  1 neighbor lists, perpetual/occasional/extra = 1 0 0
  (1) pair lj/cut, perpetual
      attributes: half, newton on
      pair build: half/bin/atomonly/newton
      stencil: half/bin/3d/newton
      bin: standard
Per MPI rank memory allocation (min/avg/max) = 7.003 | 7.003 | 7.003 Mbytes
Step Temp E_pair E_mol TotEng Press 
       0            0    197.81322            0    197.81322    64024.837 
       1            0    197.81322            0    197.81322    64024.837 
Loop time of 0.0359709 on 1 procs for 1 steps with 4000 atoms

130.3% CPU use with 1 MPI tasks x 1 OpenMP threads

Minimization stats:
  Stopping criterion = energy tolerance
  Energy initial, next-to-last, final = 
      197.813215515077   197.813215515077   197.813215515077
  Force two-norm initial, final = 3.0169953e-13 2.9960414e-13
  Force max component initial, final = 6.7904971e-15 6.7904971e-15
  Final line search alpha, max atom move = 1.0000000 6.7904971e-15
  Iterations, force evaluations = 1 2

MPI task timing breakdown:
Section |  min time  |  avg time  |  max time  |%varavg| %total
---------------------------------------------------------------
Pair    | 0.03496    | 0.03496    | 0.03496    |   0.0 | 97.19
Neigh   | 0          | 0          | 0          |   0.0 |  0.00
Comm    | 0.0010111  | 0.0010111  | 0.0010111  |   0.0 |  2.81
Output  | 0          | 0          | 0          |   0.0 |  0.00
Modify  | 0          | 0          | 0          |   0.0 |  0.00
Other   |            | 0          |            |       |  0.00

Nlocal:        4000.00 ave        4000 max        4000 min
Histogram: 1 0 0 0 0 0 0 0 0 0
Nghost:        10895.0 ave       10895 max       10895 min
Histogram: 1 0 0 0 0 0 0 0 0 0
Neighs:       640000.0 ave      640000 max      640000 min
Histogram: 1 0 0 0 0 0 0 0 0 0

Total # of neighbors = 640000
Ave neighs/atom = 160.00000
Neighbor list builds = 0
Dangerous builds = 0

print "Finish Minimizing"
Finish Minimizing

velocity all create 300 198728 dist gaussian
#Set the velocities of all the atoms so that the temperature

timestep 0.001
fix 1 all nve
dump dump_1 all custom 20 dumpnve.min id type x y z ix iy iz vx vy
#<Dump all the atoms into the dumpnve.min every time step>
thermo 20
run 3000
Per MPI rank memory allocation (min/avg/max) = 5.878 | 5.878 | 5.878 Mbytes
Step Temp E_pair E_mol TotEng Press 
       1          300    197.81322            0    352.88661    65748.927 
      20    229.84871    234.08179            0     352.8932    68027.967 
      40    96.109944    303.20679            0    352.88711    72342.889 
      60    73.530666    314.87558            0    352.88442    73050.838 
      80    130.33326    285.50621            0    352.87695    71197.096 
     100    148.01414    276.36249            0    352.87268    70627.846 
     120    138.15182    281.46202            0    352.87426    70971.126 
     140    153.77568    273.38102            0    352.86941    70477.839 
     160    177.01045     261.3751            0    352.87381     69716.31 
     180    166.77804    266.66874            0     352.8782    70040.643 
     200    138.05348    281.52344            0    352.88485    70974.876 
     220    135.89719    282.63591            0    352.88271    71045.954 
     240    157.09116    271.67131            0    352.87351    70352.694 
     260    162.07513    269.09075            0    352.86922    70188.211 
     280    146.28383    277.25771            0    352.87347    70705.323 
     300    140.57134    280.21527            0    352.87819    70893.988 
     320    153.64191    273.45647            0    352.87571    70467.604 
     340    160.53651    269.89223            0    352.87537    70241.575 
     360    151.88897    274.36346            0    352.87659    70525.551 
     380    146.25077    277.27941            0    352.87809    70712.324 
     400      153.361    273.60077            0    352.87481    70479.699 
     420     157.8455    271.28159            0    352.87372    70329.564 
     440    150.01203    275.32709            0    352.87001    70581.945 
     460    143.03496    278.93454            0    352.87093    70810.263 
     480    147.98768    276.37358            0    352.87009    70651.587 
     500    156.66067     271.8926            0    352.87227    70371.001 
     520    157.58329    271.41515            0    352.87173    70341.072 
     540    152.33746    274.13222            0    352.87718    70510.736 
     560     148.2974    276.21898            0    352.87558    70639.825 
     580    148.30663    276.21343            0    352.87481    70638.215 
     600    150.29344    275.18929            0    352.87767    70575.196 
     620    150.62155    275.01768            0    352.87566    70565.473 
     640    150.81403    274.91455            0    352.87203    70558.327 
     660    153.72489    273.41306            0     352.8752     70464.77 
     680    154.40578      273.062            0     352.8761    70443.681 
     700    151.11357    274.76642            0    352.87874     70550.59 
     720    149.02832      275.842            0    352.87642    70617.997 
     740    150.86265    274.89417            0    352.87678    70559.326 
     760    152.85091    273.86762            0    352.87799     70495.16 
     780    152.22727    274.18772            0    352.87572    70513.913 
     800     149.5545    275.57108            0     352.8775    70597.493 
     820    148.08651    276.32485            0    352.87244    70644.017 
     840    148.33014    276.20015            0    352.87367    70638.001 
     860    150.05226    275.31085            0    352.87456      70584.2 
     880    154.04086    273.25004            0     352.8755    70456.929 
     900     156.6181    271.92015            0    352.87782    70373.728 
     920    155.19155    272.65687            0    352.87714     70419.23 
     940    151.64373    274.48802            0    352.87438     70533.78 
     960    150.10829    275.28514            0    352.87781    70583.995 
     980    151.55508    274.53531            0    352.87585    70537.439 
    1000    153.06886    273.75013            0    352.87316    70487.557 
    1020    153.02568     273.7695            0     352.8702    70487.882 
    1040    150.69602    274.97405            0    352.87052    70561.373 
    1060    148.15995    276.28688            0    352.87244    70642.204 
    1080    146.86727    276.95675            0     352.8741     70684.02 
    1100    148.25397    276.24143            0    352.87559    70640.338 
    1120    151.81872    274.39958            0     352.8764    70526.767 
    1140    153.34044    273.61042            0    352.87383    70478.123 
    1160    153.56471     273.4955            0    352.87484    70472.543 
    1180    154.70054     272.9089            0    352.87536    70437.984 
    1200    155.27346    272.61076            0    352.87336    70418.949 
    1220    152.98779    273.79029            0    352.87141    70488.952 
    1240    148.14545    276.29398            0    352.87203    70641.284 
    1260    143.98445    278.44806            0    352.87525    70775.281 
    1280    144.47732    278.19252            0    352.87448    70761.889 
    1300    150.82512      274.911            0    352.87421    70559.619 
    1320    157.41638    271.50364            0    352.87395     70348.66 
    1340     157.9426    271.22956            0    352.87188    70332.155 
    1360    155.11776    272.68997            0     352.8721    70423.102 
    1380    152.14198    274.23077            0    352.87469    70517.847 
    1400    147.84431     276.4518            0     352.8742    70653.482 
    1420    145.10637    277.86755            0    352.87468    70740.214 
    1440    146.76486    277.00838            0     352.8728    70687.711 
    1460     151.0302    274.80222            0    352.87144     70552.02 
    1480    154.56123    272.97767            0    352.87212    70439.163 
    1500    155.31914      272.589            0    352.87522    70414.981 
    1520    153.97404    273.28436            0    352.87529    70458.464 
    1540    151.49185    274.56512            0    352.87298    70537.945 
    1560    148.53461    276.09393            0    352.87315    70631.269 
    1580    148.15278    276.29509            0    352.87694    70642.709 
    1600    150.28792    275.19083            0    352.87635    70574.567 
    1620    151.97423    274.32022            0    352.87742    70521.274 
    1640    152.21021    274.19772            0     352.8769    70515.002 
    1660    151.89777     274.3612            0    352.87887    70526.696 
    1680    152.99619    273.79238            0    352.87784    70492.243 
    1700    155.09571    272.70714            0    352.87787    70424.333 
    1720    153.58312    273.49069            0    352.87954    70471.444 
    1740    148.86399    275.92721            0    352.87669    70621.731 
    1760    147.35563    276.70378            0    352.87357    70669.467 
    1780      149.905    275.38259            0    352.87018    70586.104 
    1800    151.94117    274.33437            0    352.87447    70520.458 
    1820    151.02595     274.8108            0    352.87782    70552.324 
    1840    149.51538    275.59261            0     352.8788    70603.657 
    1860    151.35428    274.64084            0    352.87758    70544.638 
    1880    155.61514    272.43583            0    352.87506    70405.641 
    1900    156.46535    271.99865            0    352.87736    70377.135 
    1920    152.71006    273.93928            0    352.87684    70498.214 
    1940    149.41265    275.64122            0    352.87431    70604.394 
    1960    149.70862    275.48962            0     352.8757    70594.843 
    1980    150.99069    274.82708            0    352.87587    70553.963 
    2000    151.22577    274.70603            0    352.87634    70547.617 
    2020    151.37386    274.63008            0    352.87695    70542.951 
    2040    152.77159    273.90897            0    352.87833    70496.637 
    2060    152.93104    273.82805            0    352.87984    70489.595 
    2080    151.37021    274.63385            0    352.87883    70539.359 
    2100    149.72645    275.47908            0    352.87438    70592.709 
    2120    149.04336    275.83418            0    352.87638    70614.662 
    2140    150.09012    275.29278            0    352.87606    70580.888 
    2160     150.9029    274.87002            0    352.87344    70554.829 
    2180    150.36099    275.15143            0    352.87472    70573.043 
    2200     150.2617     275.2056            0    352.87758    70577.219 
    2220    151.92295    274.34973            0    352.88042    70524.511 
    2240    153.31293    273.63224            0    352.88143    70479.339 
    2260    153.56145     273.5015            0    352.87916    70470.471 
    2280    152.08298    274.26185            0    352.87527    70517.391 
    2300    149.47079    275.60889            0    352.87203    70600.695 
    2320    149.67671    275.50474            0    352.87432    70594.194 
    2340    151.69505    274.46159            0    352.87447    70529.872 
    2360    151.66562    274.48097            0    352.87865    70531.534 
    2380    151.52391     274.5536            0    352.87803    70536.948 
    2400    153.05205    273.76209            0    352.87642    70487.794 
    2420    154.23616     273.1475            0    352.87392    70449.131 
    2440     152.9783    273.80024            0    352.87645     70490.12 
    2460    149.83284    275.42398            0    352.87427      70591.6 
    2480    148.87427    275.91722            0    352.87201     70622.38 
    2500    151.00253    274.81998            0    352.87489    70553.609 
    2520     152.5722    274.01088            0    352.87718    70503.447 
    2540    151.12309     274.7567            0    352.87394    70550.851 
    2560    149.84392    275.42063            0    352.87665    70591.351 
    2580    152.27228    274.16412            0    352.87538    70510.938 
    2600    154.26961    273.13312            0    352.87683    70446.054 
    2620    151.64172    274.48881            0    352.87413    70532.863 
    2640    148.29565    276.21733            0    352.87303    70642.279 
    2660    149.21517    275.74595            0    352.87696    70610.843 
    2680    152.29844    274.15316            0    352.87795    70508.915 
    2700    151.91551    274.34981            0    352.87665    70521.363 
    2720    149.10243    275.80186            0    352.87459    70614.044 
    2740    148.92122    275.89487            0    352.87394    70620.872 
    2760    151.63267    274.49575            0    352.87639    70533.358 
    2780    153.07829    273.75065            0    352.87855    70487.161 
    2800    151.70402    274.46008            0    352.87761    70532.229 
    2820    151.00494    274.81871            0    352.87487    70555.218 
    2840    152.39711    274.09992            0    352.87571     70510.56 
    2860    152.97965    273.79728            0     352.8742     70490.76 
    2880    152.85768    273.86411            0    352.87797    70494.244 
    2900    151.94668    274.33487            0    352.87783     70522.94 
    2920    150.42397     275.1217            0    352.87755    70571.204 
    2940     149.4031    275.64656            0    352.87472    70604.086 
    2960    149.47568    275.60494            0    352.87061    70602.014 
    2980    151.69854    274.45588            0    352.87057    70531.358 
    3000    154.32228    273.10114            0    352.87207    70447.393 
    3001    154.41572    273.05284            0    352.87207     70444.39 
Loop time of 25.7478 on 1 procs for 3000 steps with 4000 atoms

Performance: 10.067 ns/day, 2.384 hours/ns, 116.515 timesteps/s
98.5% CPU use with 1 MPI tasks x 1 OpenMP threads

MPI task timing breakdown:
Section |  min time  |  avg time  |  max time  |%varavg| %total
---------------------------------------------------------------
Pair    | 23.369     | 23.369     | 23.369     |   0.0 | 90.76
Neigh   | 0          | 0          | 0          |   0.0 |  0.00
Comm    | 0.14816    | 0.14816    | 0.14816    |   0.0 |  0.58
Output  | 2.0389     | 2.0389     | 2.0389     |   0.0 |  7.92
Modify  | 0.11654    | 0.11654    | 0.11654    |   0.0 |  0.45
Other   |            | 0.07561    |            |       |  0.29

Nlocal:        4000.00 ave        4000 max        4000 min
Histogram: 1 0 0 0 0 0 0 0 0 0
Nghost:        10895.0 ave       10895 max       10895 min
Histogram: 1 0 0 0 0 0 0 0 0 0
Neighs:       640000.0 ave      640000 max      640000 min
Histogram: 1 0 0 0 0 0 0 0 0 0

Total # of neighbors = 640000
Ave neighs/atom = 160.00000
Neighbor list builds = 0
Dangerous builds = 0
undump dump_1
unfix 1

#Let us now change the temperature and pressure slowly using NPT

fix 2 all npt temp 150 300 0.1 iso 70000 1.0 1.0
thermo_style custom step time cpu temp pe ke etotal press vol
#<Print the thermodynamic information>
thermo 20
dump dump_1 all custom 20 dumpnve.min id type x y z ix iy iz vx vy vz  #<Dump all the atoms to the file dump.min>
run 10000
Per MPI rank memory allocation (min/avg/max) = 5.880 | 5.880 | 5.880 Mbytes
Step Time CPU Temp PotEng KinEng TotEng Press Volume 
    3001            3            0    154.41572    273.05284    79.819232    352.87207     70444.39    96071.912 
    3020        3.019   0.17056394    154.84472    271.53031    80.040989     351.5713    70293.387    96099.536 
    3040        3.039   0.35202193    152.12183    269.02955    78.633494    347.66305    69968.459    96182.739 
    3060        3.059   0.53663802    147.95572    265.84717    76.479985    342.32715    69537.513    96297.683 
    3080        3.079   0.71518493    146.44384    261.72698    75.698481    337.42547    69064.731    96405.796 
    3100        3.099   0.89763689    147.36558    258.66923    76.174935    334.84416    68759.249    96464.646 
    3120        3.119    1.0757499    147.87306    258.97385    76.437256    335.41111    68800.752    96454.229 
    3140        3.139    1.2532721    148.69466    261.28799    76.861953    338.14994    69059.521    96397.591 
    3160        3.159    1.4377599    150.67198    263.02214    77.884053    340.90619    69275.638    96345.497 
    3180        3.179    1.6169031      152.642     262.7288    78.902377    341.63118    69268.636    96343.686 
    3200        3.199    1.7983599    153.09292    260.29728    79.135465    339.43274    68995.327    96409.366 
    3220        3.219     1.975883    151.93517    256.42126    78.537009    334.95827    68531.082    96525.482 
    3240        3.239    2.1544681      151.702    251.65337    78.416483    330.06985    67997.073    96649.403 
    3260        3.259     2.331995    151.59714    248.55638    78.362277    326.91865    67651.904    96730.803 
    3280        3.279     2.512481     149.8448    249.16113    77.456474     326.6176    67667.946    96744.211 
    3300        3.299     2.693965     148.9337    251.43705    76.985514    328.42256    67880.854    96709.138 
    3320        3.319    2.8781059    151.49232    252.19628    78.308093    330.50437    68008.029    96670.172 
    3340        3.339    3.0596199    154.63554    251.35032    79.932859    331.28318     67975.43    96662.637 
    3360        3.359    3.2381411    154.90519    249.98212    80.072247    330.05437    67819.812    96701.342 
    3380        3.379     3.419657    153.48039    247.61743    79.335749    326.95318    67517.826     96783.64 
    3400        3.399     3.598243    153.22722    243.79902    79.204884    323.00391    67086.571    96887.449 
    3420        3.419    3.7777629    153.12371    240.63635    79.151379    319.78773    66728.228    96975.585 
    3440        3.439     3.957284    152.29501    239.72479    78.723017    318.44781    66593.205    97020.257 
    3460        3.459     4.134536    152.95861    239.91376    79.066036     318.9798    66609.669    97021.474 
    3480        3.479     4.322969     155.1056    240.31577    80.175841    320.49161    66682.482    96999.688 
    3500        3.499      4.50249    155.92607    241.09782    80.599953    321.69777    66766.146    96983.659 
    3520        3.519    4.6859999    156.45261    240.55306    80.872125    321.42518    66702.975    97001.683 
    3540        3.539    4.8685529    156.79606    238.23697    81.049657    319.28663    66447.403    97063.446 
    3560        3.559     5.051084    156.36559    235.12142    80.827144    315.94857    66087.003    97154.097 
    3580        3.579    5.2306039    156.71364     231.6638    81.007053    312.67086    65708.118    97244.262 
    3600        3.599    5.4140511    157.08638    229.50427    81.199726      310.704    65469.766    97303.246 
    3620        3.619      5.59164     156.6836    229.54784    80.991527    310.53937     65449.46    97318.733 
    3640        3.639     5.772825    155.54092    231.13103    80.400861    311.53189    65575.744    97306.647 
    3660        3.659    5.9508729    155.03049    232.18032    80.137016    312.31733    65656.776    97301.312 
    3680        3.679    6.1323271    156.26765    230.95336    80.776518    311.72988    65532.903    97330.939 
    3700        3.699     6.311903    158.40867    227.75173    81.883237    309.63497    65218.744    97397.633 
    3720        3.719     6.489428    159.35726    224.49802    82.373574    306.87159    64873.008    97479.269 
    3740        3.739      6.66889    159.57335     222.0549    82.485271    304.54018    64599.573    97548.681 
    3760        3.759     6.846478    160.44745    220.45143    82.937103    303.38854    64434.373     97587.97 
    3780        3.779    7.0250001    160.92481      220.343    83.183857    303.52686    64420.822     97594.55 
    3800        3.799     7.205518    161.02303    221.04979    83.234626    304.28442    64485.676    97585.191 
    3820        3.819     7.385973    161.06572     221.3489    83.256695     304.6056    64504.899    97586.655 
    3840        3.839    7.5655551    160.35964    220.77942    82.891713    303.67113    64410.666    97620.032 
    3860        3.859    7.7460699    160.29637    218.44228    82.859006    301.30129    64140.949    97690.487 
    3880        3.879    7.9235971    160.35299     215.3182    82.888278    298.20648    63789.034    97781.054 
    3900        3.899     8.115021    160.04589    212.73373     82.72953    295.46326    63487.764    97863.944 
    3920        3.919    8.2995279    161.63278     210.3969    83.549815    293.94672    63256.941    97917.007 
    3940        3.939    8.4780509    164.38394    209.05503    84.971918    294.02694    63159.982    97928.671 
    3960        3.959    8.6565731    164.58226    210.25278    85.074433    295.32721    63276.353    97906.487 
    3980        3.979    8.8360929    162.88954    212.35488    84.199449    296.55433     63447.07    97884.297 
    4000        3.999    9.0335691    162.07817    212.43559     83.78004    296.21563    63422.692    97901.936 
    4020        4.019    9.2180729    162.53305    209.77627    84.015176    293.79145    63134.056    97974.152 
    4040        4.039    9.4036341    162.80227    205.91565    84.154339    290.06999    62711.264    98081.477 
    4060        4.059     9.584094    162.76504    202.37996    84.135091    286.51506    62314.394    98186.193 
    4080        4.079    9.7755809    163.47216    199.94284    84.500609    284.44345    62051.238    98253.745 
    4100        4.099    9.9531679    164.29257    199.48713    84.924692    284.41182    62002.561    98268.466 
    4120        4.119     10.13063    164.28085     200.9588    84.918631    285.87743    62141.526    98243.511 
    4140        4.139    10.324113    164.17894    202.55343    84.865954    287.41938    62292.586    98216.101 
    4160        4.159    10.502637    165.11442    202.23424    85.349511    287.58375    62264.091    98224.278 
    4180        4.179    10.682218    166.30761    199.82808    85.966286    285.79437    62018.811    98282.607 
    4200        4.199    10.861734    167.50094    196.04025    86.583132    282.62338    61626.044     98376.56 
    4220        4.219    11.054163    168.53576    192.23383    87.118041    279.35187    61230.682    98472.084 
    4240        4.239     11.23368    167.79426    190.52486    86.734751    277.25961    61018.888     98535.79 
    4260        4.259    11.412203    165.45923    191.20089    85.527747    276.72864    61022.994    98558.603 
    4280        4.279     11.58873    164.95016      191.878    85.264606    277.14261    61066.234    98559.105 
    4300        4.299    11.770246    167.36407      191.063    86.512382    277.57538    61017.382    98561.568 
    4320        4.319     11.94777    168.67475    190.24399     87.18989    277.43388    60942.108    98579.644 
    4340        4.339    12.131282    167.59154    189.69331    86.629963    276.32327    60840.799    98622.125 
    4360        4.359    12.312796    167.48094    187.59238    86.572793    274.16518    60596.429    98692.341 
    4380        4.379    12.494832    168.69059    184.33045    87.198074    271.52852    60258.645    98775.737 
    4400        4.399    12.672295    168.32319    182.33577    87.008164    269.34393    60019.726    98846.801 
    4420        4.419    12.855805    167.12481    181.74158    86.388706    268.13029    59910.403    98892.235 
    4440        4.439    13.032506    168.18849     180.8464    86.938534    267.78494    59822.416    98915.357 
    4460        4.459     13.21003     169.9017    180.16143    87.824112    267.98554    59772.445    98924.257 
    4480        4.479    13.388463    169.92473    180.34929    87.836014     268.1853    59776.803    98932.199 
    4500        4.499    13.565988    169.72821    179.97465    87.734435    267.70909    59713.841    98957.874 
    4520        4.519    13.751817    171.24972    177.72934    88.520919    266.25026    59489.223    99010.391 
    4540        4.539    13.929341    172.67615    174.93271    89.258258    264.19097    59206.267    99078.485 
    4560        4.559    14.105869    171.15602    173.73389    88.472483    262.20638    59027.968    99143.805 
    4580        4.579    14.288383    168.74367    173.34176    87.225513    260.56727    58916.216    99200.438 
    4600        4.599    14.469898    168.97789     171.9209    87.346586    259.26748    58751.381     99251.01 
    4620        4.619    14.646423    172.57259    169.18856    89.204723    258.39328    58522.255    99291.961 
    4640        4.639       14.827    176.22394    167.11306    91.092151    258.20521    58367.858    99312.704 
    4660        4.659     15.00456    175.61842    167.80609    90.779148    258.58524    58414.304    99313.542 
    4680        4.679    15.183078    172.42285    169.55034    89.127322    258.67766    58513.512    99319.479 
    4700        4.699    15.359543    171.41648    168.93822    88.607119    257.54534    58409.156    99360.699 
    4720        4.719    15.543084    172.07608    166.16074    88.948072    255.10881    58109.577    99441.257 
    4740        4.739    15.721616    171.83622    163.30471    88.824086    252.12879    57779.575    99539.537 
    4760        4.759    15.905086    173.04943    160.12293    89.451211    249.57414    57448.439    99628.227 
    4780        4.779    16.080711    176.43514    157.09067    91.201321    248.29199    57184.657    99681.221 
    4800        4.799    16.260231    177.76455    156.77069    91.888507     248.6592    57163.628    99684.641 
    4820        4.819    16.441809    175.96905    159.05894    90.960394    250.01933    57352.399     99656.74 
    4840        4.839    16.621266    173.06343    161.42864    89.458446    250.88708    57523.576    99642.472 
    4860        4.859    16.804811    173.53943    160.25948    89.704495    249.96398    57392.389    99681.496 
    4880        4.879    16.981302    177.25584    155.64177     91.62555    247.26732     56967.67    99773.033 
    4900        4.899    17.157877    179.00999    151.52467    92.532293    244.05697    56553.267    99878.562 
    4920        4.919    17.351316    176.46212     150.3674    91.215268    241.58267    56354.823    99961.251 
    4940        4.939    17.528774    174.76092    149.91395    90.335897    240.24984    56248.938    100011.99 
    4960        4.959      17.7063    177.18353     148.3648    91.588173    239.95297    56121.217    100035.37 
    4980        4.979    17.882827    179.08711    147.88076    92.572154    240.45291    56095.364    100036.06 
    5000        4.999    18.063345    177.41114    149.37496    91.705826    241.08078    56198.423    100031.72 
    5020        5.019    18.240869    175.54348    150.04354    90.740413    240.78395    56208.478    100054.19 
    5040        5.039    18.419392    176.95964    147.53556     91.47244      239.008    55954.517    100121.26 
    5060        5.059    18.594923    178.78028    143.86426    92.413549    236.27781      55585.4    100216.72 
    5080        5.079    18.777436    178.23708     141.5048    92.132762    233.63756    55301.708    100309.24 
    5100        5.099    18.956954    177.09084    140.25064    91.540261     231.7909    55122.365     100378.6 
    5120        5.119    19.132485    177.77371     139.0683    91.893245    230.96155    54991.522    100419.48 
    5140        5.139    19.308015    179.43033    138.26739     92.74957    231.01696    54924.393    100434.71 
    5160        5.159    19.491526    179.70859    138.62362    92.893405    231.51703    54949.838    100436.37 
    5180        5.179     19.66905    178.99977    139.14551    92.527008    231.67252    54971.743    100447.54 
    5200        5.199    19.851564    179.69718    137.93113    92.887509    230.81863    54841.015    100488.94 
    5220        5.219    20.027153     181.5156    135.13249    93.827469    228.95996    54564.343    100560.67 
    5240        5.239    20.205673    183.21031    132.00851    94.703484      226.712    54250.364    100643.19 
    5260        5.259    20.384139    183.32604    130.08447    94.763303    224.84778     54030.54    100712.69 
    5280        5.279    20.563659    180.87981    130.21673     93.49882    223.71555     53970.17     100759.3 
    5300        5.299     20.74218     179.6643    130.19255    92.870511    223.06306      53920.9    100793.49 
    5320        5.319    20.916713    181.10385    128.90374    93.614632    222.51838    53796.499    100827.78 
    5340        5.339    21.091246    183.11883    127.27277    94.656194    221.92896    53647.215    100865.13 
    5360        5.359    21.271765     184.0669    126.06436    95.146262    221.21062    53520.506    100904.75 
    5380        5.379    21.451617    184.50899    124.92721    95.374785      220.302    53392.776    100948.14 
    5400        5.399    21.627204    184.47134    123.81503    95.355323    219.17035    53257.419    100996.94 
    5420        5.419    21.807665    183.76544    122.83098    94.990434    217.82141     53119.25    101051.72 
    5440        5.439    21.987186    182.85388    121.79016     94.51924     216.3094    52968.034    101112.47 
    5460        5.459    22.162778    183.10975    120.09392    94.651504    214.74542    52772.867    101176.98 
    5480        5.479    22.341238    184.96329    117.76429     95.60962    213.37391    52548.575    101237.22 
    5500        5.499    22.516767    185.76069    116.46119    96.021805    212.48299    52407.549    101282.67 
    5520        5.519    22.691363    185.80996    115.97296     96.04727    212.02024    52337.361    101313.55 
    5540        5.539    22.870854    186.84305    115.10813    96.581286    211.68942    52253.274    101339.37 
    5560        5.559    23.046414     187.1078    114.47707    96.718141    211.19521     52175.73    101368.92 
    5580        5.579    23.221939    186.88048    113.69333    96.600636    210.29397    52068.191    101410.84 
    5600        5.599    23.406388    188.34698    111.54002    97.358684    208.89871    51857.409    101468.41 
    5620        5.619    23.585909    188.17032    109.99764    97.267368    207.26501    51674.117    101532.71 
    5640        5.639    23.767423    185.64014    109.63253    95.959492    205.59202    51560.378    101597.88 
    5660        5.659    23.943015     185.2663    108.17656     95.76625    203.94281    51379.518    101665.79 
    5680        5.679    24.120478    186.51976    106.08406    96.414176    202.49823    51164.409    101730.98 
    5700        5.699    24.298003    188.10467    104.25773    97.233435    201.49116    50984.013    101783.27 
    5720        5.719    24.491548    189.40235     103.1031    97.904219    201.00731    50870.493    101817.42 
    5740        5.739    24.662091    189.42011    102.95468    97.913397    200.86808    50836.278    101838.01 
    5760        5.759    24.835629    188.29313    103.29257    97.330849    200.62342    50828.105    101860.43 
    5780        5.779    25.011096    187.28819    102.95585    96.811383    199.76723     50751.22    101903.03 
    5800        5.799    25.186283    187.06095      101.387     96.69392    198.08092    50560.271    101974.27 
    5820        5.819    25.364836    188.04031    98.637943    97.200166    195.83811    50269.694    102066.22 
    5840        5.839    25.537372    189.83893     95.53134     98.12989    193.66123    49959.721    102157.04 
    5860        5.859    25.707854    191.85697    93.065556    99.173037    192.23859    49724.303    102222.51 
    5880        5.879    25.885381    193.10903      92.0881    99.820242    191.90834    49632.794     102249.7 
    5900        5.899    26.059151    192.50388    92.910414    99.507433    192.41785    49690.448    102246.79 
    5920        5.919    26.229667    191.80867    93.817847    99.148072    192.96592    49755.024    102242.07 
    5940        5.939     26.41066    192.10947     93.39487    99.303559    192.69843    49701.114    102264.65 
    5960        5.959    26.580661    192.06184    91.958253    99.278937    191.23719    49529.796    102327.12 
    5980        5.979    26.755189    190.99134    90.038697    98.725584    188.76428    49280.502    102424.82 
    6000        5.999    26.925671    191.11352    87.042827    98.788741    185.83157    48945.817    102540.57 
    6020        6.019     27.09422    192.19794    83.952557    99.349289    183.30185    48622.538    102645.87 
    6040        6.039    27.264764    191.93734    82.665051    99.214584    181.87963    48455.091    102715.15 
    6060        6.059    27.435308    191.85938    82.476294    99.174283    181.65058    48408.518     102744.2 
    6080        6.079    27.608333     193.3883    82.231579      99.9646    182.19618    48396.633    102746.64 
    6100        6.099     27.78087    194.72318    82.252025    100.65462    182.90664    48409.351    102742.28 
    6120        6.119    27.955406    194.64038    82.450468    100.61182    183.06229    48409.839    102753.97 
    6140        6.139    28.125516    194.36242     81.67518    100.46814    182.14332    48303.393    102801.54 
    6160        6.159    28.298055    193.98053     79.75901    100.27073    180.02974    48073.935    102889.55 
    6180        6.179    28.467604    193.86938    76.973718    100.21328      177.187    47755.116    103004.36 
    6200        6.199     28.64114    194.73796    73.763568    100.66226    174.42582    47411.195    103119.13 
    6220        6.219    28.810741    195.52357    71.504599    101.06835    172.57295    47166.111    103204.19 
    6240        6.239    28.981227    194.70595    71.358437    100.64571    172.00415    47108.193    103245.04 
    6260        6.259    29.164737    194.36801    71.922907    100.47103    172.39393    47137.751    103253.52 
    6280        6.279    29.333286    196.84573    71.287239    101.75179    173.03903    47107.909    103253.96 
    6300        6.299    29.505826    198.93212    70.529841    102.83026    173.36011    47055.752       103264 
    6320        6.319    29.673438     197.6257    70.758724    102.15496    172.91368    47027.131     103297.8 
    6340        6.339    29.841925    196.22997    69.884432    101.43349    171.31792    46882.198    103370.25 
    6360        6.359    30.012471       197.89    66.444319    102.29158     168.7359    46539.296    103479.05 
    6380        6.379    30.179486    199.85323     62.68713     103.3064    165.99353    46168.101    103594.94 
    6400        6.399    30.346994    199.72521    60.748547    103.24022    163.98877    45937.778    103684.33 
    6420        6.419    30.533556    199.21076    60.140339     102.9743    163.11464    45840.488    103733.22 
    6440        6.439    30.705092    199.07875    60.299087    102.90606    163.20515    45835.526    103748.17 
    6460        6.459     30.87365    198.34066    61.164765    102.52453     163.6893    45889.334    103750.18 
    6480        6.479    31.043129    198.64906    61.110917    102.68395    163.79486    45869.015    103767.61 
    6500        6.499    31.212677    200.45887    59.388233    103.61946    163.00769    45707.639     103817.9 
    6520        6.519     31.38029    200.90815     57.47632     103.8517    161.32802    45493.583    103898.85 
    6540        6.539    31.554763    200.38034    55.501645    103.57886    159.08051    45252.357    103998.95 
    6560        6.559    31.721315    199.88468    53.425629    103.32265    156.74828     45002.65    104102.43 
    6580        6.579    31.888926      199.841    51.514864    103.30007    154.81494    44779.467    104192.65 
    6600        6.599    32.069448    201.67479    49.413152    104.24798    153.66113    44579.719    104256.44 
    6620        6.619    32.236699    202.89333    48.541647    104.87786    153.41951    44494.945    104286.09 
    6640        6.639    32.402779    202.32222    49.234787    104.58265    153.81744    44532.299    104290.72 
    6660        6.659    32.568342    201.81167    49.853178    104.31873    154.17191    44564.105    104296.57 
    6680        6.679    32.734886    201.87177    49.452405     104.3498    153.80221    44503.186    104329.43 
    6700        6.699    32.903432    201.39741    48.301591     104.1046    152.40619    44348.817    104401.58 
    6720        6.719    33.067997    201.08537    46.128397     103.9433     150.0717     44088.71    104510.35 
    6740        6.739    33.236483    203.35649     42.21844    105.11727    147.33571    43708.031    104636.17 
    6760        6.759    33.402102    206.16908    38.541863    106.57113    145.11299    43365.255    104742.96 
    6780        6.779     33.57059    206.03505    37.572541    106.50185    144.07439    43239.321    104801.38 
    6800        6.799    33.737203    204.55548     38.46596    105.73705    144.20301    43281.174    104813.24 
    6820        6.819      33.9037    203.10973    39.859569    104.98972    144.84929    43376.704    104806.34 
    6840        6.839    34.068316     202.0659    40.668881    104.45015    145.11903    43416.811    104816.67 
    6860        6.859    34.233832    202.05024    39.897599    104.44205    144.33965    43308.003    104871.42 
    6880        6.879    34.400369    204.55944    36.616138    105.73909    142.35523    42995.202    104974.27 
    6900        6.899    34.567924    206.88869    32.817538     106.9431    139.76064    42626.101    105099.49 
    6920        6.919    34.733572    205.88594    30.980537    106.42477    137.40531    42384.284    105213.01 
    6940        6.939    34.916047    204.46317     30.07828    105.68933    135.76761    42233.359    105297.87 
    6960        6.959    35.078578    205.07641     28.98363    106.00632    134.98995    42109.514    105351.73 
    6980        6.979    35.244145    207.48593    27.733469    107.25182    134.98529    42010.468    105377.42 
    7000        6.999    35.412757    209.53917     27.15311    108.31317    135.46628    41975.403    105382.43 
    7020        7.019    35.580249    209.80098    27.508023     108.4485    135.95652    42000.343    105383.72 
    7040        7.039    35.750792    208.30011    28.164056    107.67268    135.83674     42016.47    105406.82 
    7060        7.059    35.918343    206.98175    27.581085    106.99121     134.5723    41904.719    105474.91 
    7080        7.079    36.082904    208.21876    24.535321    107.63063    132.16595    41591.639    105591.04 
    7100        7.099     36.24553    210.24292    20.603975    108.67694    129.28092    41202.193    105728.76 
    7120        7.119    36.428977    210.15414    18.164938    108.63105    126.79599    40920.348     105850.2 
    7140        7.139    36.589547    209.06173    17.218235    108.06637    125.28461    40773.818    105932.77 
    7160        7.159    36.751177    208.28948    17.140608    107.66719     124.8078    40725.183    105975.27 
    7180        7.179    37.016923    208.77217    17.116008     107.9167    125.03271    40708.208    105992.09 
    7200        7.199     37.20149    211.22784    16.262137    109.18606     125.4482    40652.894    106002.32 
    7220        7.219    37.361063    211.80009     16.10575    109.48187    125.58762    40629.345    106020.91 
    7240        7.239    37.523597    208.56702     17.17753    107.81065    124.98818    40643.003    106066.84 
    7260        7.259    37.686192    206.29161    16.582091    106.63447    123.21656    40502.283    106161.91 
    7280        7.279    37.868643    208.62152    12.597519    107.83883    120.43635    40111.636    106304.04 
    7300        7.299    38.032203    212.69817    7.5787715    109.94609    117.52486    39652.527    106454.49 
    7320        7.319    38.197763    214.48141    4.6386538    110.86787    115.50652    39362.198    106564.22 
    7340        7.339     38.36167     212.9951    4.8170562    110.09958    114.91664    39325.371    106610.35 
    7360        7.359    38.524882    211.28137    6.2441641    109.21373     115.4579    39415.646    106608.84 
    7380        7.379    38.689444    212.05303    6.7432273    109.61261    116.35584    39465.668    106595.62 
    7400        7.399    38.871955    213.58168    6.4297921    110.40279    116.83258    39444.717    106601.57 
    7420        7.419    39.033587    213.97571    5.7755467    110.60647    116.38202    39359.039    106646.01 
    7440        7.439    39.197084    213.91589    4.2287178    110.57555    114.80426    39172.384    106736.75 
    7460        7.459     39.36663    213.38589    2.0243378    110.30158    112.32592    38907.259    106865.87 
    7480        7.479     39.53051    211.85881 -0.058753078    109.51222    109.45347    38629.459     107013.2 
    7500        7.499     39.70697     210.6467   -2.0850818    108.88566    106.80058    38359.678    107155.82 
    7520        7.519    39.869538    211.80479   -4.6001918    109.48429     104.8841    38091.159    107272.04 
    7540        7.539    40.032102    215.78622   -7.4533719    111.54234    104.08897     37858.15    107341.29 
    7560        7.559    40.196662    217.65259   -7.9371319    112.50709    104.56995    37824.219    107351.66 
    7580        7.579    40.355814    216.86668   -6.2504535    112.10084    105.85039    37958.931    107321.49 
    7600        7.599    40.517382    216.74052   -5.0170683    112.03563    107.01856    38066.278    107294.03 
    7620        7.619    40.679817    217.49044   -5.2129502    112.42327    107.21032    38044.375    107308.72 
    7640        7.639    40.842442    218.50763   -6.9518199    112.94907    105.99725    37867.321    107383.84 
    7660        7.659    41.004946    218.22951   -9.2796427    112.80531    103.52566    37597.004    107513.07 
    7680        7.679    41.182472    216.26232   -11.459799    111.78844    100.32864     37300.08    107674.74 
    7700        7.699    41.341108     214.8954   -13.955423    111.08186    97.126439    36980.865    107841.83 
    7720        7.719    41.502674    216.36842   -17.177641    111.84329    94.665644        36650    107984.06 
    7740        7.739    41.661251    219.50816   -19.963777    113.46625    93.502474    36405.985    108071.31 
    7760        7.759     41.82082    220.53285    -20.20564    113.99592    93.790285    36379.668    108089.64 
    7780        7.779    41.978341    219.09046   -18.193311    113.25034    95.057028    36532.558    108059.39 
    7800        7.799    42.136917    216.99388    -15.83905    112.16659    96.327541    36705.387    108028.53 
    7820        7.819    42.310452    215.51243   -14.843362    111.40082    96.557454    36747.916    108047.07 
    7840        7.839     42.47208    215.62345   -16.301551     111.4582    95.156652    36569.199    108142.77 
    7860        7.859    42.629599    217.33109   -20.016976     112.3409    92.323926    36189.129     108307.4 
    7880        7.879    42.790235    220.32338   -24.997787    113.88765    88.889863    35710.268    108500.02 
    7900        7.899    42.947811    222.75427   -29.128711     115.1442    86.015492    35311.086    108664.94 
    7920        7.919    43.105329    222.25215   -30.369587    114.88465    84.515064    35146.849    108761.44 
    7940        7.939     43.28052    220.26186   -29.346303    113.85585    84.509548    35182.369    108787.27 
    7960        7.959    43.440652    220.42223   -28.488405    113.93875     85.45034    35252.382       108772 
    7980        7.979    43.596296    221.89254   -28.132818    114.69877    86.565948    35300.551     108751.8 
    8000        7.999    43.755807    222.37852   -27.828745    114.94998     87.12123    35318.641    108758.43 
    8020        8.019    43.912389    222.05504   -28.235769    114.78276    86.546995    35244.138    108816.57 
    8040        8.039    44.068006    221.71867   -29.922833    114.60889    84.686058    35034.844     108934.8 
    8060        8.059    44.238556    221.78227    -32.76994    114.64177    81.871825    34710.098    109099.61 
    8080        8.079    44.393141    222.93412   -36.420421    115.23717    78.816747    34324.707    109278.54 
    8100        8.099    44.553652    224.77666    -39.84636     116.1896    76.343238    33981.818     109430.5 
    8120        8.119    44.712227    225.50015   -41.512058    116.56358     75.05152    33800.498    109523.65 
    8140        8.139    44.868073    224.79186   -41.177547    116.19746    75.019912    33796.911    109553.71 
    8160        8.159    45.026651    224.46578   -40.245242     116.0289    75.783659    33866.985       109545 
    8180        8.179    45.182296    224.63138   -39.483612     116.1145    76.630891    33927.832    109533.81 
    8200        8.199    45.351839     224.8515   -39.370775    116.22829     76.85751    33919.958    109553.49 
    8220        8.219    45.507426    224.32381   -39.916945    115.95552    76.038571    33823.312    109625.05 
    8240        8.239    45.664007    223.41509   -41.404613    115.48579    74.081177    33618.934    109753.61 
    8260        8.259    45.821582    223.09706   -44.036248     115.3214    71.285149     33309.45     109925.9 
    8280        8.279      45.9801    223.06948   -47.020119    115.30714    68.287018    32966.537    110112.05 
    8300        8.299    46.134618    223.77134   -49.885574    115.66994    65.784363    32650.416    110277.15 
    8320        8.319    46.307151    225.83356   -52.432307    116.73593    64.303618    32403.266    110392.05 
    8340        8.339     46.46168    227.43272   -53.490987    117.56255    64.071563    32305.335    110441.71 
    8360        8.359    46.620472    226.79528   -52.368658    117.23305    64.864392    32382.009    110436.91 
    8380        8.379    46.790018    225.82944   -50.751169    116.73379    65.982623    32500.807    110415.54 
    8400        8.399    46.945158    227.87788   -51.161883    117.79265    66.630772    32480.298    110420.17 
    8420        8.419    47.098611    231.45912   -53.288552    119.64384    66.355285    32319.454    110470.38 
    8440        8.439    47.256126    231.65819    -54.61315    119.74674    65.133592    32160.653    110563.23 
    8460        8.459    47.421755    228.35616   -54.968159    118.03988    63.071723    32019.817    110694.32 
    8480        8.479    47.577539    225.70736   -56.269965    116.67069    60.400723    31795.736    110860.62 
    8500        8.499    47.731192    225.48168   -59.011753    116.55403    57.542279    31475.905    111046.01 
    8520        8.519    47.885715    227.40247   -62.437524    117.54691    55.109388    31131.423    111219.15 
    8540        8.539    48.039362    229.22131    -64.89142    118.48709    53.595671    30885.744    111346.27 
    8560        8.559    48.190962    228.77012   -65.059684    118.25386    53.194179    30822.773    111411.94 
    8580        8.579    48.357453    228.79704   -64.619059    118.26778     53.64872    30838.804    111430.38 
    8600        8.599    48.511042    231.05776   -64.973365    119.43637    54.463004    30830.528    111429.23 
    8620        8.619    48.666825     233.4706   -65.549126     120.6836    55.134472    30802.931    111432.66 
    8640        8.639    48.819479    234.93574    -66.19035    121.44094    55.250593    30746.174    111460.31 
    8660        8.659    48.975002    235.07411   -66.973839    121.51247    54.538628    30646.188    111526.04 
    8680        8.679    49.130585    232.34475   -67.181574    120.10163    52.920055    30535.632    111636.89 
    8700        8.699    49.299134    229.39609   -68.111294    118.57744    50.466142    30343.399    111796.04 
    8720        8.719    49.478653     229.5165    -71.10874    118.63968    47.530939      30008.8    111992.08 
    8740        8.739    49.655243    231.66611    -75.00121    119.75084    44.749627    29626.222    112190.55 
    8760        8.759    49.808828    233.10647    -77.75111    120.49537    42.744264      29342.7    112349.73 
    8780        8.779    49.963357    232.60478    -78.39295    120.23605    41.843096    29230.583    112445.82 
    8800        8.799    50.113984    231.63624    -77.79456    119.73539    41.940834    29238.366    112484.64 
    8820        8.819    50.268573    230.77136   -76.699499    119.28833    42.588832    29300.222    112493.46 
    8840        8.839    50.435412     230.3043   -75.870608     119.0469    43.176293    29340.317    112508.46 
    8860        8.859    50.587008    231.81559   -76.675794     119.8281    43.152311    29257.024    112560.58 
    8880        8.879    50.738603    235.00133   -79.186855    121.47485     42.28799     29039.33     112659.3 
    8900        8.899    50.890399    236.76532   -81.634719    122.38667    40.751956    28795.748    112791.58 
    8920        8.919    51.041927     235.5005   -82.879419    121.73288    38.853457    28604.713    112939.39 
    8940        8.939    51.207484     234.8694   -84.527288    121.40665    36.879363    28391.487    113091.68 
    8960        8.959    51.358082    236.20686   -86.958238      122.098     35.13976    28144.785     113234.7 
    8980        8.979    51.511672    238.24703    -89.23908    123.15258    33.913504    27929.328    113349.96 
    9000        8.999     51.66224    239.14498   -90.277757    123.61675    33.338991    27816.012    113425.12 
    9020        9.019    51.814325    237.31009   -89.378518    122.66827    33.289755    27837.015    113466.47 
    9040        9.039    51.964926    234.29886   -87.755373    121.11173    33.356361    27901.545    113502.93 
    9060        9.059    52.114524    233.42125   -87.622734    120.65808    33.035351    27858.598    113570.09 
    9080        9.079    52.282014    236.19501   -90.059078    122.09187    32.032796    27637.636     113684.3 
    9100        9.099    52.430684    238.72814   -92.938807    123.40128     30.46247    27364.371    113832.13 
    9120        9.119    52.583206    238.38945   -94.587146    123.22621    28.639061    27150.265    113990.07 
    9140        9.139    52.732676    237.03798   -95.679486    122.52761    26.848129    26973.095    114143.54 
    9160        9.159     52.88321    237.04464   -97.226594    122.53106    25.304462     26783.78    114284.64 
    9180        9.179    53.032809     238.7219   -99.225908    123.39805    24.172145    26588.138    114404.27 
    9200        9.199    53.198441    240.30193   -100.66097    124.21479    23.553818    26446.064    114493.36 
    9220        9.219    53.350961    241.16857   -101.28199    124.66276    23.380773    26372.145    114552.21 
    9240        9.239    53.499562    240.75688   -101.00721    124.44996    23.442741    26360.599    114593.79 
    9260        9.259    53.653208    239.44585   -100.38381    123.77227    23.388458    26363.355    114641.89 
    9280        9.279    53.807738    238.51463   -100.42235    123.29091    22.868556    26305.199    114722.16 
    9300        9.299    53.971299    238.44388   -101.57372    123.25434    21.680625    26149.929    114849.09 
    9320        9.319    54.118968    238.72517   -103.52484    123.39974    19.874902     25917.69    115019.44 
    9340        9.339    54.268567    238.64017   -105.65293     123.3558    17.702873     25656.71    115215.63 
    9360        9.359    54.419103    238.82636   -107.92208    123.45205    15.529966    25388.022    115414.09 
    9380        9.379    54.570698    240.04303   -110.33362    124.08096     13.74734     25132.14    115589.86 
    9400        9.399    54.733263    240.53348   -111.70223    124.33448    12.632253    24965.864    115722.38 
    9420        9.419    54.880928    241.05146   -112.35196    124.60223    12.250273    24875.307    115807.15 
    9440        9.439    55.032462    242.86523   -113.09426    125.53979    12.445525    24810.304    115853.98 
    9460        9.459    55.184143    244.85831   -113.62462    126.57003    12.945419    24773.568    115878.33 
    9480        9.479    55.338786     245.8174   -113.65917     127.0658    13.406623    24763.393    115900.65 
    9500        9.499    55.486391    246.09629   -113.75281    127.20996    13.457154    24733.645     115945.1 
    9520        9.519    55.646903    244.67643   -113.65718    126.47601    12.818839    24680.083    116032.51 
    9540        9.539    55.796505    242.27878   -113.89987    125.23664    11.336769    24563.471    116178.05 
    9560        9.559    55.949098    241.69179   -115.84838    124.93322    9.0848457    24313.168    116383.66 
    9580        9.579    56.096763     243.1317   -119.24174    125.67753     6.435787     23961.95    116626.62 
    9600        9.599    56.245366    243.71564   -122.07058    125.97937    3.9087947    23644.739     116866.4 
    9620        9.619    56.404939    242.72479    -123.5223    125.46719    1.9448909    23428.635    117068.71 
    9640        9.639    56.555473     241.9072   -124.27905    125.04457   0.76552292    23288.036    117218.88 
    9660        9.659    56.703146    242.77587    -125.1256     125.4936   0.36799849    23180.221    117317.74 
    9680        9.679    56.851681    245.50257   -126.29175    126.90305   0.61130388    23087.527    117373.13 
    9700        9.699    57.003337    247.32724   -126.60012    127.84625    1.2461338    23062.828    117396.96 
    9720        9.719    57.151948     246.3275   -125.42656    127.32948    1.9029196    23121.398     117413.5 
    9740        9.739    57.310517    245.22147   -124.62644    126.75775    2.1313132    23141.814    117459.72 
    9760        9.759     57.45806    245.31256   -125.22299    126.80484    1.5818512    23047.096    117564.87 
    9780        9.779    57.617633    246.65796   -127.33794    127.50029   0.16235589    22825.218    117735.64 
    9800        9.799    57.773216    248.50318   -130.35549    128.45411   -1.9013826    22521.593    117954.26 
    9820        9.819    57.923304    249.76309    -133.2955    129.10537   -4.1901344    22210.994    118187.41 
    9840        9.839    58.081879     250.5363   -135.73731    129.50505   -6.2322637    21939.313    118400.76 
    9860        9.859     58.23148    251.68617   -137.78827    130.09943   -7.6888357    21721.891    118568.54 
    9880        9.879    58.394043    251.70892    -138.5135    130.11119   -8.4023129    21615.763    118678.23 
    9900        9.899    58.539714    250.06808   -137.75816    129.26302   -8.4951392    21622.178    118739.34 
    9920        9.919    58.688314    248.47501   -136.73325    128.43955   -8.2936991    21657.089    118781.94 
    9940        9.939    58.846894    248.76066   -136.77885     128.5872   -8.1916498    21626.586    118840.18 
    9960        9.959     58.99344    250.06494   -137.75734     129.2614   -8.4959408    21521.385    118935.19 
    9980        9.979    59.142042    250.25407   -138.73305    129.35916   -9.3738882    21385.181    119073.33 
   10000        9.999    59.289649    249.52274   -139.78663    128.98113   -10.805501     21217.44    119253.54 
   10020       10.019    59.436057    248.43393   -141.07323    128.41831   -12.654922    21017.553    119468.36 
   10040       10.039    59.592697    247.77391   -142.76974    128.07714   -14.692604    20786.928    119703.79 
   10060       10.059    59.743237    247.58648   -144.64022    127.98025   -16.659969    20549.725    119940.32 
   10080       10.079    59.937718    247.34119   -146.17056    127.85346   -18.317102    20342.615    120158.12 
   10100       10.099    60.169097    247.02925   -147.20811    127.69222   -19.515891    20178.763    120344.35 
   10120       10.119     60.33964    248.23132   -148.52977    128.31358   -20.216196    20020.996    120494.87 
   10140       10.139    60.484315    251.19354   -150.29572    129.84478   -20.450941    19863.445    120607.83 
   10160       10.159    60.629927     254.6058   -151.87769    131.60862    -20.26907    19741.075     120682.4 
   10180       10.179    60.775474    256.47443   -152.39692    132.57454   -19.822383    19697.545     120725.1 
   10200       10.199    60.921086    255.13796    -151.2564     131.8837   -19.372702    19747.163    120757.99 
   10220       10.219      61.0647    253.27143   -150.18923    130.91887    -19.27036    19776.977    120818.62 
   10240       10.239    61.221046     252.5805     -150.383    130.56172   -19.821284    19704.186    120939.36 
   10260       10.259    61.365638    252.15258   -151.47744    130.34052   -21.136921    19537.703    121131.92 
   10280       10.279    61.515264    252.23558   -153.48681    130.38342    -23.10339    19284.417    121387.69 
   10300       10.299    61.662809    253.10099   -156.25556    130.83077   -25.424788    18971.827     121680.1 
   10320       10.319    61.811126    254.71656    -159.3437    131.66588   -27.677829    18648.316    121970.93 
   10340       10.339    61.980607    255.38418   -161.49203    132.01097   -29.481061    18400.089    122222.23 
   10360       10.359     62.12522    254.11497   -161.97124     131.3549   -30.616332    18273.413    122413.81 
   10380       10.379    62.268836    253.08239   -161.91227    130.82115   -31.091115    18207.699    122550.69 
   10400       10.399    62.412452    253.65825   -162.20009    131.11882   -31.081273    18147.009    122650.83 
   10420       10.419     62.55585    254.13125   -162.19715    131.36332   -30.833827    18109.343    122733.77 
   10440       10.439    62.713428     254.0949   -161.99281    131.34453   -30.648274        18078    122822.13 
   10460       10.459    62.861035     255.2753   -162.70288    131.95469   -30.748189    17987.315    122937.62 
   10480       10.479    63.003647    256.68715   -163.94987    132.68449   -31.265383    17849.336    123089.93 
   10500       10.499    63.147241    257.34118   -165.22925    133.02257   -32.206679    17687.479    123278.44 
   10520       10.519    63.290147    258.51726   -167.11066     133.6305   -33.480161    17478.894    123496.25 
   10540       10.539    63.452714    259.94106   -169.27185    134.36647   -34.905374    17249.221    123727.58 
   10560       10.559    63.595331     260.7224   -171.05937    134.77036   -36.289008    17042.493    123952.97 
   10580       10.579    63.741939    260.33539   -172.05675    134.57031   -37.486442    16887.865    124158.53 
   10600       10.599    63.885555    258.41652    -172.0232    133.57842   -38.444775    16798.347    124342.32 
   10620       10.619    64.039206    256.13279   -171.60741    132.39794   -39.209472    16736.218     124515.8 
   10640       10.639    64.184813    254.90014   -171.65868    131.76077   -39.897911    16650.288    124695.61 
   10660       10.659    64.327373    254.84958   -172.37494    131.73464   -40.640307    16523.049    124893.06 
   10680       10.679    64.469842    254.96411   -173.31229    131.79384   -41.518455     16372.97    125110.45 
   10700       10.699    64.615392     255.0095   -174.34648     131.8173    -42.52918    16207.656    125344.58 
   10720       10.719    64.774965    255.35966   -175.60737     131.9983   -43.609074    16026.027    125588.66 
   10740       10.739    64.921057    255.80302    -176.8791    132.22748   -44.651627    15844.835    125832.93 
   10760       10.759    65.063676    256.60322   -178.20162    132.64111   -45.560511    15668.647     126067.9 
   10780       10.779    65.204365    257.94353   -179.60544    133.33393   -46.271507    15500.732     126285.8 
   10800       10.799    65.345919    259.11031   -180.70889    133.93705   -46.771836    15361.457    126481.61 
   10820       10.819    65.499509    258.91713   -180.92492     133.8372   -47.087722    15275.625    126657.39 
   10840       10.839    65.640134    257.67997   -180.51922    133.19769   -47.321522    15222.627    126826.27 
   10860       10.859    65.782751    257.13755   -180.52708    132.91731    -47.60977    15143.565    127007.35 
   10880       10.879    65.924372     258.0387   -181.44104    133.38312   -48.057919     15009.38    127213.27 
   10900       10.899    66.079958    258.93787   -182.55741    133.84792   -48.709495    14853.572    127444.77 
   10920       10.919    66.219926    259.07855    -183.4602    133.92064   -49.539561    14699.555    127697.12 
   10940       10.939     66.36248    258.80569   -184.26972    133.77959   -50.490131    14544.022    127965.61 
   10960       10.959     66.50117     259.7615   -185.75376    134.27366   -51.480096    14353.802     128244.4 
   10980       10.979    66.645721    261.03947   -187.34965    134.93426    -52.41539    14159.337    128521.37 
   11000       10.999    66.802303    262.37115   -188.84342    135.62262   -53.220802    13975.876    128783.77 
   11020       11.019    66.941928    264.63249    -190.6062    136.79153   -53.814667    13791.208    129021.72 
   11040       11.039    67.079622    266.67054    -192.0224    137.84502   -54.177377    13639.558    129227.05 
   11060       11.059    67.222181    267.05207   -192.38457    138.04224   -54.342325    13556.129    129400.08 
   11080       11.079    67.375769     265.1335   -191.46133    137.05051   -54.410821    13544.005    129556.62 
   11100       11.099    67.514464    262.47487   -190.22834    135.67623    -54.55211    13540.423    129726.96 
   11120       11.119    67.652064    262.55394   -190.64666     135.7171   -54.929558    13438.362    129940.39 
   11140       11.139    67.794649    265.06247   -192.63351    137.01379   -55.619717    13238.095    130203.31 
   11160       11.159    67.935334    266.57799   -194.36513    137.79718    -56.56795    13032.185    130500.14 
   11180       11.179    68.087865     266.1179   -195.23489    137.55935   -57.675532    12860.195    130813.18 
   11200       11.199    68.229486    265.10736   -195.85729      137.037   -58.820292    12700.894    131132.42 
   11220       11.219     68.36612    265.61314   -197.17213    137.29844   -59.873697     12516.22    131450.86 
   11240       11.239    68.507741    265.65456   -198.10474    137.31985   -60.784894    12358.951    131758.16 
   11260       11.259    68.659393    263.92163   -197.96829    136.42408   -61.544209    12259.045    132051.06 
   11280       11.279    68.798962    262.69597   -197.97736    135.79052   -62.186836    12155.125    132338.68 
   11300       11.299    68.951318    263.44015   -198.92628     136.1752   -62.751082     12005.84       132629 
   11320       11.319    69.087894    264.94649   -200.21324    136.95384   -63.259399    11839.094    132919.97 
   11340       11.339    69.241485    265.86793   -201.15685    137.43014   -63.726706    11691.037     133205.6 
   11360       11.359    69.377122    265.53582   -201.40439    137.25847   -64.145925     11580.39    133484.76 
   11380       11.379    69.511798    264.22258   -201.13036    136.57964   -64.550715     11496.42    133765.16 
   11400       11.399    69.650424    263.50532   -201.19253    136.20888   -64.983646    11393.802    134059.71 
   11420       11.419    69.790018    264.30053    -202.1006    136.61994   -65.480665    11245.052    134375.91 
   11440       11.439    69.936069    265.41813   -203.25174    137.19763   -66.054103    11078.579    134710.15 
   11460       11.459    70.069674    265.11235   -203.72329    137.03958   -66.683709    10939.793    135054.93 
   11480       11.479    70.208282    264.07296   -203.83233     136.5023   -67.330032    10817.046    135408.82 
   11500       11.499    70.340926    263.49235   -204.17553    136.20218   -67.973353    10683.761    135774.17 
   11520       11.519    70.489586    262.84587   -204.46993      135.868   -68.601927    10550.431    136151.15 
   11540       11.539    70.622235    261.87062   -204.59146    135.36389    -69.22757    10419.672     136539.7 
   11560       11.559    70.756813    262.48401   -205.52071    135.68096   -69.839758    10247.918    136939.04 
   11580       11.579    70.901623    265.37207   -207.54841    137.17383   -70.374586    10027.399    137338.63 
   11600       11.599    71.043047    268.93466   -209.78302    139.01537   -70.767656    9807.5829    137717.78 
   11620       11.619    71.174758     270.5905   -210.85483    139.87129   -70.983536    9656.4537    138059.15 
   11640       11.639    71.310335    269.64193   -210.40702    139.38096   -71.026052    9588.4559    138364.51 
   11660       11.659    71.455536    268.02383    -209.5249    138.54455   -70.980351      9547.32    138656.01 
   11680       11.679    71.587219    267.76759   -209.36341     138.4121   -70.951318    9471.5909    138960.56 
   11700       11.699     71.71983    268.54941   -209.81601    138.81623    -70.99978    9357.7186    139294.67 
   11720       11.719    71.852532     269.6099   -210.57277    139.36441   -71.208357    9218.7808    139663.12 
   11740       11.739    71.994134    270.39308   -211.33812    139.76924   -71.568874    9070.5165    140063.09 
   11760       11.759    72.126742    270.07731   -211.66417    139.60602   -72.058157    8934.3521    140489.22 
   11780       11.779    72.259387    269.99805   -212.18482    139.56505   -72.619776    8784.8197    140937.99 
   11800       11.799    72.456358    270.28419   -212.91988    139.71296   -73.206926    8623.7664    141402.76 
   11820       11.819     72.62391    269.76152   -213.21337    139.44278   -73.770587    8482.4679    141874.95 
   11840       11.839     72.75456    268.52041   -213.08737    138.80124    -74.28613    8362.9026    142351.47 
   11860       11.859    72.887207    266.56413   -212.54336    137.79002   -74.753341    8264.7448    142835.75 
   11880       11.879     73.02085    263.47212   -211.39704    136.19172    -75.20532    8191.2301    143337.06 
   11900       11.899    73.160589    260.35907   -210.25906    134.58255   -75.676504    8109.3221    143869.33 
   11920       11.919    73.288215    259.60145   -210.37691    134.19093   -76.185981    7962.3413    144441.03 
   11940       11.939    73.414913     261.5515   -211.88957    135.19893   -76.690642    7747.6564    145041.56 
   11960       11.959    73.544559    264.17384   -213.65781    136.55445    -77.10336    7522.4032    145643.71 
   11980       11.979    73.682129    265.91338   -214.81188    137.45364   -77.358244    7332.8732    146221.55 
   12000       11.999     73.80879      266.457   -215.15873    137.73464   -77.424088    7191.0147    146764.11 
   12020       12.019    73.936833    266.76661    -215.2108    137.89468   -77.316121    7073.9552    147276.38 
   12040       12.039    74.075863    267.30024   -215.25096    138.17052   -77.080438     6965.401     147770.9 
   12060       12.059     74.19953     267.7951   -215.20491    138.42632   -76.778593    6863.7104     148261.6 
   12080       12.079    74.323039    267.85111   -214.94148    138.45527   -76.486205     6770.704    148762.26 
   12100       12.099    74.449637    267.14812   -214.34144    138.09189   -76.249556    6686.7016    149287.01 
   12120       12.119    74.588267    267.20949   -214.21576    138.12361   -76.092156    6576.1777    149848.61 
   12140       12.139    74.714927    268.04034   -214.57235    138.55308   -76.019266     6438.561    150449.78 
   12160       12.159    74.840593    268.20499    -214.6582     138.6382       -76.02    6305.8067     151084.3 
   12180       12.179    74.973299    268.16258   -214.67382    138.61628   -76.057547    6172.8333    151745.98 
   12200       12.199    75.093952    268.36147   -214.80932    138.71908   -76.090232    6034.2308    152428.65 
   12220       12.219    75.217583    268.35164   -214.81979      138.714   -76.105787    5901.1105    153125.64 
   12240       12.239    75.338319    268.21799   -214.72126    138.64492   -76.076343    5773.5919       153833 
   12260       12.259    75.470966    268.19225   -214.63574    138.63161   -76.004133    5647.5041    154549.67 
   12280       12.279    75.589645    268.05863   -214.44834    138.56254   -75.885799    5527.0932    155276.12 
   12300       12.299    75.707331    267.02616   -213.76047    138.02885   -75.731627    5426.0831    156015.57 
   12320       12.319    75.841913    265.80199   -212.95547    137.39606    -75.55941    5327.7321    156776.16 
   12340       12.339    75.960595    265.08166   -212.40259    137.02371   -75.378876    5216.4806    157565.13 
   12360       12.359    76.081273     264.4792   -211.89263    136.71229    -75.18034    5099.8414    158384.28 
   12380       12.379    76.207933    263.97597   -211.41764    136.45217   -74.965471    4979.6067    159232.34 
   12400       12.399    76.322686     263.3354   -210.83622    136.12105   -74.715168    4862.3058     160106.7 
   12420       12.419     76.43638    262.49644   -210.13449    135.68738   -74.447111    4749.2179     161005.8 
   12440       12.439    76.559991    262.26002   -209.70289    135.56517   -74.137711    4625.7329    161929.15 
   12460       12.459    76.677358    262.69815   -209.56306    135.79165   -73.771412    4492.0005    162873.37 
   12480       12.479    76.794109    263.32577   -209.45574    136.11607   -73.339667    4359.5209    163832.99 
   12500       12.499    76.917714    263.33123   -208.95854     136.1189   -72.839639    4244.2991    164805.19 
   12520       12.519    77.029478    262.91489   -208.20473    135.90368   -72.301049    4140.8421     165793.7 
   12540       12.539     77.14411    262.41967   -207.37591     135.6477   -71.728217    4040.7449    166805.58 
   12560       12.559    77.263788    262.04731   -206.58179    135.45522    -71.12657    3938.0686    167847.08 
   12580       12.579    77.374551      262.619   -206.23641    135.75073    -70.48568    3817.7288    168920.65 
   12600       12.599    77.495232    263.59057   -206.04488    136.25295   -69.791934    3691.5804    170021.95 
   12620       12.619    77.602946    264.17885   -205.61612    136.55704   -69.059078    3576.0092    171145.59 
   12640       12.639     77.71159     263.6734   -204.58882    136.29576   -68.293053    3484.4503    172291.82 
   12660       12.659    77.831335    261.42033   -202.65207    135.13113   -67.520945    3424.8366    173470.07 
   12680       12.679    77.938982    259.07838   -200.67884    133.92055    -66.75829    3362.2755    174697.06 
   12700       12.699    78.045759    259.68661   -200.19596    134.23495   -65.961016    3243.1699    175980.55 
   12720       12.719    78.161452     262.5687   -200.80799    135.72474    -65.08326    3084.7788       177305 
   12740       12.739    78.269157    265.23487   -201.20688    137.10291   -64.103971     2936.959    178646.05 
   12760       12.759    78.387784     266.1508   -200.63241    137.57636   -63.056046    2828.4915     179993.3 
   12780       12.779    78.495814    265.35701   -199.13592    137.16604   -61.969875    2756.5672    181357.08 
   12800       12.799    78.599537    263.80986   -197.24978     136.3663   -60.883476    2700.2213    182759.18 
   12820       12.819    78.712173    262.47373   -195.46536    135.67564   -59.789716    2639.7547    184218.72 
   12840       12.839    78.816214     261.5754   -193.89795    135.21129   -58.686667     2569.736    185743.94 
   12860       12.859    78.928918    261.17455   -192.57628    135.00408   -57.572203     2489.712    187333.29 
   12880       12.879    79.030643    260.88794   -191.27255    134.85593   -56.416624    2407.7496    188980.27 
   12900       12.899    79.141284    260.34908   -189.80033    134.57739    -55.22294    2330.0878    190680.19 
   12920       12.919    79.242076    259.99583   -188.37037    134.39479   -53.975577    2249.6267    192432.58 
   12940       12.939    79.345739    260.43125   -187.29424    134.61986   -52.674378    2157.0927    194236.89 
   12960       12.959    79.455443    261.41736   -186.41836    135.12959    -51.28877    2058.0858    196089.09 
   12980       12.979    79.554242    262.26334   -185.39409    135.56689   -49.827195    1964.4932    197985.42 
   13000       12.999    79.660957     263.0226   -184.26635    135.95936   -48.306992    1875.8758    199926.92 
   13001           13    79.666941     263.0685   -184.21463    135.98308   -48.231547    1871.3974    200025.25 
Loop time of 79.6669 on 1 procs for 10000 steps with 4000 atoms

Performance: 10.845 ns/day, 2.213 hours/ns, 125.523 timesteps/s
98.9% CPU use with 1 MPI tasks x 1 OpenMP threads

MPI task timing breakdown:
Section |  min time  |  avg time  |  max time  |%varavg| %total
---------------------------------------------------------------
Pair    | 68.476     | 68.476     | 68.476     |   0.0 | 85.95
Neigh   | 0.88773    | 0.88773    | 0.88773    |   0.0 |  1.11
Comm    | 0.48771    | 0.48771    | 0.48771    |   0.0 |  0.61
Output  | 7.6565     | 7.6565     | 7.6565     |   0.0 |  9.61
Modify  | 1.906      | 1.906      | 1.906      |   0.0 |  2.39
Other   |            | 0.2529     |            |       |  0.32

Nlocal:        4000.00 ave        4000 max        4000 min
Histogram: 1 0 0 0 0 0 0 0 0 0
Nghost:        7316.00 ave        7316 max        7316 min
Histogram: 1 0 0 0 0 0 0 0 0 0
Neighs:       290494.0 ave      290494 max      290494 min
Histogram: 1 0 0 0 0 0 0 0 0 0

Total # of neighbors = 290494
Ave neighs/atom = 72.623500
Neighbor list builds = 72
Dangerous builds = 0
unfix 2

#Checking the pressure/temp it has reached using the NVE ensemble

fix 2 all nve
run 5000
Per MPI rank memory allocation (min/avg/max) = 7.470 | 7.470 | 7.470 Mbytes
Step Time CPU Temp PotEng KinEng TotEng Press Volume 
   13001           13            0     263.0685   -184.21463    135.98308   -48.231547    1871.3974    200025.25 
   13020       13.019  0.089758873    258.87738   -182.04623    133.81665   -48.229582    1960.3272    200025.25 
   13040       13.039    0.1825099    254.90635    -180.0024    131.76398   -48.238427    2046.2951    200025.25 
   13060       13.059   0.27532101    251.40746   -178.19728    129.95536   -48.241919     2122.506    200025.25 
   13080       13.079   0.36801386    249.24763   -177.08361    128.83892   -48.244687    2174.4875    200025.25 
   13100       13.099   0.46182799     248.6777   -176.79441    128.54432    -48.25009    2198.0233    200025.25 
   13120       13.119   0.56748295     249.1159   -177.03013    128.77083   -48.259307    2202.9543    200025.25 
   13140       13.139   0.66422391    249.30093   -177.13333    128.86647   -48.266855    2210.2842    200025.25 
   13160       13.159   0.75897002    248.15052    -176.5462    128.27181   -48.274388    2237.6536    200025.25 
   13180       13.179   0.85378003    246.02439   -175.44782    127.17279    -48.27503    2279.5719    200025.25 
   13200       13.199   0.94746399    244.11658   -174.46663    126.18663   -48.280001    2316.3755    200025.25 
   13220       13.219     1.052242    243.46538   -174.12891    125.85001   -48.278896    2331.3416    200025.25 
   13240       13.239     1.176851     244.1235   -174.46894     126.1902   -48.278734    2323.7244    200025.25 
   13260       13.259    1.2995219    245.13024   -174.98731     126.7106   -48.276715    2309.4826    200025.25 
   13280       13.279    1.3922749    245.67411   -175.27645    126.99173   -48.284725    2302.1858    200025.25 
   13300       13.299     1.490015    246.07282   -175.48544    127.19783   -48.287618    2298.0977    200025.25 
   13320       13.319     1.595732    246.39686    -175.6518    127.36533   -48.286475    2296.1136    200025.25 
   13340       13.339     1.692039    246.40029   -175.65681     127.3671   -48.289708    2299.4107    200025.25 
   13360       13.359     1.785851    246.31334   -175.61244    127.32215   -48.290292    2304.2202    200025.25 
   13380       13.379    1.8786039    246.38951   -175.65759    127.36153    -48.29606    2306.3974    200025.25 
   13400       13.399      1.97628    246.19654   -175.55855    127.26178   -48.296771    2312.6707    200025.25 
   13420       13.419     2.080997    245.43137   -175.16394    126.86625   -48.297688    2327.3693    200025.25 
   13440       13.439    2.1737499     244.7868   -174.82973    126.53307   -48.296664    2339.4569    200025.25 
   13460       13.459    2.2675629    244.74703   -174.81839    126.51251   -48.305879    2340.7683    200025.25 
   13480       13.479     2.360316    244.96934   -174.93512    126.62742   -48.307691    2336.5105    200025.25 
   13500       13.499    2.4569941    245.24166   -175.07341    126.76819    -48.30522    2329.6975    200025.25 
   13520       13.519    2.5637081    246.15891   -175.54585    127.24233    -48.30352    2311.3164    200025.25 
   13540       13.539    2.6564591     247.8231     -176.399    128.10257   -48.296439    2280.8846    200025.25 
   13560       13.559    2.7502649    248.84564   -176.92894    128.63113   -48.297818     2260.764    200025.25 
   13580       13.579    2.8439569    248.63414   -176.82117     128.5218   -48.299366    2261.2554    200025.25 
   13600       13.599    2.9363871     247.7164   -176.34098    128.04741   -48.293569    2274.2905    200025.25 
   13620       13.619     3.039113    246.97261    -175.9568    127.66294   -48.293866    2285.0578    200025.25 
   13640       13.639    3.1337941    247.31893   -176.13106    127.84195   -48.289111    2278.8139    200025.25 
   13660       13.659    3.2295949    248.66087    -176.8284    128.53562    -48.29278    2256.9351    200025.25 
   13680       13.679     3.323288    249.37062   -177.20365     128.9025   -48.301153    2244.9541    200025.25 
[...]
   14740       14.739     8.705425    246.60919   -175.78205    127.47508   -48.306972    2282.4654    200025.25 
   14760       14.759    8.8011689    245.27865   -175.09974    126.78731   -48.312428    2302.2489    200025.25 
   14780       14.779    8.9038949    245.13256   -175.02302     126.7118   -48.311228    2303.1718    200025.25 
   14800       14.799    9.0056229     245.4792   -175.20027    126.89098   -48.309293    2295.6344    200025.25 
   14820       14.819     9.114332    245.71807    -175.3229    127.01445   -48.308447    2289.4976    200025.25 
   14840       14.839    9.2091351    245.64177   -175.28499    126.97501    -48.30998    2288.2963    200025.25 
   14860       14.859    9.3018939    245.38665   -175.14997    126.84313    -48.30684    2289.6791    200025.25 
   14880       14.879      9.39957    245.58362   -175.25399    126.94495   -48.309044    2283.2541    200025.25 
   14900       14.899     9.497308    246.31598   -175.63453    127.32352   -48.311012    2267.6202    200025.25 
   14920       14.919    9.6000309    247.14752   -176.06478    127.75335   -48.311427    2249.7381    200025.25 
   14940       14.939     9.697772    248.67952   -176.86149    128.54526    -48.31623    2221.4565    200025.25 
   14960       14.959     9.794513    250.69302   -177.90031    129.58606   -48.314248    2187.7348    200025.25 
   14980       14.979    9.8873279     251.8645   -178.50597    130.19161    -48.31436    2170.0706    200025.25 
   15000       14.999     9.990988    251.39393   -178.26126    129.94837   -48.312894    2181.6163    200025.25 
   15020       15.019    10.085733     249.2952   -177.17028    128.86351   -48.306772     2221.738    200025.25 
   15040       15.039    10.182474    246.63369   -175.79809    127.48774   -48.310348    2272.4486    200025.25 
   15060       15.059    10.276223     244.1635   -174.52072    126.21088   -48.309845    2320.3499    200025.25 
   15080       15.079    10.369972    241.80548   -173.30122    124.99199   -48.309225    2364.3107    200025.25 
   15100       15.099    10.466904     240.3279   -172.53746    124.22821   -48.309254    2391.0978    200025.25 
   15120       15.119    10.569629    240.25255   -172.49793    124.18926   -48.308668    2392.1287    200025.25 
   15140       15.139    10.661382    241.31946   -173.04816    124.74076     -48.3074    2371.8546    200025.25 
   15160       15.159    10.755131    243.05178   -173.94334    125.63622    -48.30712    2339.0124    200025.25 
   15180       15.179    10.848882     244.9185   -174.90586    126.60115   -48.304713    2303.5712    200025.25 
   15200       15.199    10.952605    246.68294   -175.81709     127.5132   -48.303883    2270.8365    200025.25 
   15220       15.219    11.050343     247.8527   -176.42306    128.11787   -48.305194    2249.5887    200025.25 
   15240       15.239    11.148082    247.71206   -176.35275    128.04517   -48.307588      2251.21    200025.25 
   15260       15.259    11.241829    246.41691   -175.68518    127.37569   -48.309493    2272.7687    200025.25 
   15280       15.279    11.335237    244.77711   -174.84167    126.52806   -48.313608     2300.239    200025.25 
   15300       15.299    11.428926    243.71538    -174.2919    125.97924   -48.312662    2317.7805    200025.25 
   15320       15.319    11.531649    244.00511   -174.44181      126.129   -48.312805    2312.5272    200025.25 
   15340       15.339    11.628393    245.31562   -175.11948    126.80642   -48.313062    2289.7298    200025.25 
   15360       15.359    11.722202    246.74306   -175.85249    127.54428   -48.308211    2264.3956    200025.25 
   15380       15.379     11.81988    247.94208   -176.47327    128.16407   -48.309195    2243.0236    200025.25 
   15400       15.399    11.913582    248.78043   -176.91201    128.59742   -48.314588    2228.5152    200025.25 
   15420       15.419    12.015309    248.96833   -177.00751    128.69455   -48.312965    2225.5921    200025.25 
   15440       15.439    12.111053    248.66806   -176.85638    128.53933   -48.317042    2231.4457    200025.25 
   15460       15.459    12.206739    247.94051   -176.47951    128.16326   -48.316248    2244.8841    200025.25 
   15480       15.479    12.380725    247.36771    -176.1908    127.86717   -48.323631    2256.4945    200025.25 
   15500       15.499    12.510278    247.06303   -176.03884    127.70967   -48.329169    2264.4246    200025.25 
   15520       15.519    12.613002    246.64429   -175.82372    127.49323   -48.330498    2274.4141    200025.25 
   15540       15.539    12.709747    246.30286   -175.64082    127.31674   -48.324087    2283.7507    200025.25 
   15560       15.559    12.805923     245.7541   -175.35118    127.03307   -48.318101    2296.4037    200025.25 
   15580       15.579    12.901667    245.17389   -175.05279    126.73316   -48.319631     2309.485    200025.25 
   15600       15.599    12.995475    244.67238   -174.80224    126.47392   -48.328321    2321.2615    200025.25 
   15620       15.619    13.100199    244.17758   -174.54848    126.21815   -48.330327    2332.7457    200025.25 
   15640       15.639    13.197876    243.85992   -174.38524    126.05395   -48.331282    2340.6474    200025.25 
   15660       15.659    13.293619    243.53884   -174.21803    125.88798   -48.330051    2346.9019    200025.25 
   15680       15.679    13.391359    243.73957   -174.31451    125.99174   -48.322764    2343.4422    200025.25 
   15700       15.699    13.488098    244.62126   -174.76904     126.4475   -48.321544    2328.1194    200025.25 
   15720       15.719    13.591883    245.35568   -175.15146    126.82713   -48.324334    2314.2326    200025.25 
   15740       15.739    13.685633     245.6152   -175.28702    126.96128   -48.325741    2307.3363    200025.25 
   15760       15.759    13.779394    246.04696   -175.50955    127.18446   -48.325092     2297.823    200025.25 
   15780       15.779     13.87706    246.92947   -175.96182    127.64064   -48.321182    2281.8246    200025.25 
   15800       15.799    13.971868    247.80206   -176.41212    128.09169   -48.320431    2267.0324    200025.25 
   15820       15.819    14.079518    248.05993   -176.54997    128.22499   -48.324979    2263.3961    200025.25 
   15840       15.839     14.17333    247.65138   -176.34068     128.0138   -48.326881    2272.1644    200025.25 
   15860       15.859    14.272003    246.70769   -175.84896      127.526   -48.322958    2291.0665    200025.25 
   15880       15.879    14.367814    245.31088   -175.12329    126.80397   -48.319323    2317.7726    200025.25 
   15900       15.899    14.462492    244.26268   -174.58268    126.26214   -48.320536    2339.0482    200025.25 
   15920       15.919    14.568211    243.82945   -174.35718     126.0382   -48.318974    2350.3715    200025.25 
   15940       15.939    14.662992    243.21706   -174.04005    125.72165   -48.318404    2363.2844    200025.25 
   15960       15.959    14.756706    242.69267   -173.76526    125.45059   -48.314674    2373.3537    200025.25 
   15980       15.979     14.85351     243.1508    -174.0048     125.6874   -48.317399    2366.6085    200025.25 
   16000       15.999    14.947196    243.94412    -174.4093    126.09748   -48.311819    2353.2148    200025.25 
   16020       16.019     15.05391    244.59351   -174.74841    126.43316   -48.315253    2341.1114    200025.25 
   16040       16.039     15.14672    244.97866     -174.945    126.63224   -48.312761    2333.5601    200025.25 
   16060       16.059    15.242406    244.71016   -174.80595    126.49345   -48.312493    2337.0732    200025.25 
   16080       16.079    15.336155    243.99642   -174.43847    126.12451   -48.313958    2348.6088    200025.25 
   16100       16.099    15.429421    243.64427   -174.25708    125.94248   -48.314595    2355.5589    200025.25 
   16120       16.119    15.523172    244.00667   -174.44355    126.12981   -48.313743     2352.026    200025.25 
   16140       16.139    15.624899    244.38496   -174.63819    126.32535   -48.312831    2348.0223    200025.25 
   16160       16.159     15.71765    244.59482   -174.74888    126.43383   -48.315047    2345.9388    200025.25 
   16180       16.179    15.816386    245.11299   -175.01066    126.70168   -48.308976     2338.659    200025.25 
   16200       16.199    15.914127     245.7053   -175.31914    127.00785   -48.311291    2329.7203    200025.25 
   16220       16.219    16.007874    245.98432   -175.45825    127.15208   -48.306172    2325.8008    200025.25 
   16240       16.239    16.111836      245.932   -175.43296    127.12504   -48.307929    2327.3359    200025.25 
   16260       16.259    16.204592    245.40302   -175.16042     126.8516   -48.308819    2336.3818    200025.25 
   16280       16.279    16.297281    244.83436    -174.8609    126.55765   -48.303244    2345.7493    200025.25 
   16300       16.299     16.39103     244.6558   -174.76861    126.46535   -48.303254    2347.8807    200025.25 
   16320       16.319     16.48503    244.88561   -174.89076    126.58415    -48.30661     2341.821    200025.25 
   16340       16.339    16.586759    245.74846    -175.3373    127.03016   -48.307137     2324.299    200025.25 
   16360       16.359    16.679511    246.90629   -175.93498    127.62866    -48.30632    2301.1499    200025.25 
   16380       16.379    16.776189     247.7454   -176.37281     128.0624   -48.310413    2282.8435    200025.25 
   16400       16.399    16.870936    247.87662    -176.4412    128.13023   -48.310971    2276.6775    200025.25 
   16420       16.419    16.966745    247.32913   -176.16002    127.84723   -48.312796    2282.9557    200025.25 
   16440       16.439    17.070401    246.48899   -175.73161    127.41295   -48.318662     2295.953    200025.25 
   16460       16.459    17.163217    245.90079   -175.42522     127.1089   -48.316316     2307.222    200025.25 
   16480       16.479    17.256902     245.5849   -175.26015    126.94562   -48.314537    2315.6721    200025.25 
   16500       16.499    17.354399    244.92206   -174.91667    126.60298   -48.313689    2329.6721    200025.25 
   16520       16.519    17.448146    244.39366   -174.64131    126.32985   -48.311459     2340.829    200025.25 
   16540       16.539    17.545886    244.68474   -174.79987    126.48031   -48.319561    2337.7153    200025.25 
   16560       16.559    17.652602    245.36037   -175.15247    126.82955   -48.322913    2327.0819    200025.25 
   16580       16.579     17.75034    245.96853   -175.46739    127.14392   -48.323473    2316.4577    200025.25 
   16600       16.599    17.846081    246.32112   -175.64481    127.32617   -48.318632    2309.5564    200025.25 
   16620       16.619    17.939414    246.21002   -175.59038    127.26874   -48.321635    2309.9192    200025.25 
   16640       16.639    18.036156    245.74612   -175.34951    127.02895   -48.320553    2316.4369    200025.25 
   16660       16.659    18.139877     245.4097   -175.18124    126.85505   -48.326184    2321.8143    200025.25 
   16680       16.679    18.236289    245.36568     -175.158     126.8323   -48.325705    2323.9485    200025.25 
   16700       16.699    18.331033    244.89513   -174.91712    126.58907   -48.328051    2333.6171    200025.25 
   16720       16.719    18.426777    243.89625   -174.39822    126.07273   -48.325488    2352.1611    200025.25 
   16740       16.739    18.532496    242.88897   -173.87485    125.55206   -48.322793    2370.6011    200025.25 
   16760       16.759    18.630233    242.63043   -173.74155    125.41842   -48.323131    2376.3359    200025.25 
   16780       16.779    18.723168    243.34894   -174.11392    125.78982   -48.324098    2365.8342    200025.25 
   16800       16.799    18.823838    243.96629   -174.43319    126.10894   -48.324251    2356.3098    200025.25 
   16820       16.819     18.91665    243.86366   -174.37738    126.05589   -48.321495     2358.507    200025.25 
   16840       16.839    19.019378    242.86458   -173.85951    125.53945   -48.320057    2375.5327    200025.25 
   16860       16.859    19.114122    241.39841   -173.09642    124.78157   -48.314848    2400.2148    200025.25 
   16880       16.879      19.2118    240.60504   -172.69284    124.37147   -48.321375    2413.6415    200025.25 
   16900       16.899    19.308098    240.71782   -172.74813    124.42976   -48.318367    2411.4823    200025.25 
   16920       16.919    19.400786    241.13931   -172.96514    124.64764   -48.317499    2402.4475    200025.25 
   16940       16.939    19.507503    241.74278   -173.27632    124.95958   -48.316735    2389.3534    200025.25 
   16960       16.959    19.610836      242.208    -173.5182    125.20006   -48.318137    2377.9493    200025.25 
   16980       16.979    19.703592    242.59616    -173.7171     125.4007   -48.316403    2368.0066    200025.25 
   17000       16.999    19.797276    242.98701   -173.91958    125.60274   -48.316843    2358.3247    200025.25 
   17020       17.019    19.895015    243.34036    -174.1028    125.78538   -48.317416    2349.2857    200025.25 
   17040       17.039    20.002922    243.97185   -174.42499    126.11181   -48.313182    2335.8944    200025.25 
   17060       17.059    20.101658    244.84697   -174.87733    126.56417   -48.313158    2318.3125    200025.25 
   17080       17.079    20.195445    246.05018   -175.49758    127.18613   -48.311454    2295.8611    200025.25 
   17100       17.099    20.288263    247.19286     -176.086    127.77679   -48.309208    2275.5223    200025.25 
   17120       17.119    20.381012    247.24525   -176.11463    127.80387   -48.310764    2273.6573    200025.25 
   17140       17.139    20.484737    246.19109   -175.56589    127.25896    -48.30693     2290.338    200025.25 
   17160       17.159    20.576486    245.52915   -175.22083     126.9168   -48.304035    2301.5609    200025.25 
   17180       17.179     20.67024    246.03627   -175.48045    127.17894    -48.30151    2294.5915    200025.25 
   17200       17.199    20.762992    246.96111   -175.95508    127.65699    -48.29809    2280.9309    200025.25 
   17220       17.219    20.859671    247.20302   -176.08036    127.78204   -48.298317    2277.6881    200025.25 
   17240       17.239    20.962394    246.78255   -175.85815    127.56469   -48.293459    2284.7619    200025.25 
   17260       17.259    21.056204    246.35666   -175.64071    127.34455   -48.296166    2291.3998    200025.25 
   17280       17.279    21.148956    246.54931   -175.73346    127.44413    -48.28933    2288.0269    200025.25 
   17300       17.299    21.243641    246.93193   -175.93061    127.64191   -48.288704    2280.9701    200025.25 
   17320       17.319    21.337391     247.0342   -175.98383    127.69478   -48.289059    2277.9528    200025.25 
   17340       17.339     21.44311    246.97584   -175.95652    127.66461   -48.291912    2277.8534    200025.25 
   17360       17.359    21.536922    246.64657   -175.78821     127.4944   -48.293809    2282.8263    200025.25 
   17380       17.379    21.629669    246.22221   -175.56394    127.27505   -48.288896    2290.2086    200025.25 
   17400       17.399    21.722361    246.25544   -175.57631    127.29222   -48.284086    2290.9427    200025.25 
   17420       17.419    21.822097    246.78148   -175.84997    127.56414   -48.285825    2283.8944    200025.25 
   17440       17.439    21.927527     247.0344   -175.98482    127.69488   -48.289942    2280.5723    200025.25 
   17460       17.459    22.022273    247.01915   -175.98314    127.68699   -48.296144    2280.9527    200025.25 
   17480       17.479    22.116022    247.39662   -176.17846    127.88212    -48.29634    2275.2892    200025.25 
   17500       17.499    22.212765    248.00248   -176.49208    128.19529    -48.29679    2266.4887    200025.25 
   17520       17.519    22.308507    247.98829   -176.48576    128.18796   -48.297809    2268.1289    200025.25 
   17540       17.539    22.412233    247.03101   -175.99166    127.69312   -48.298539    2285.2444    200025.25 
   17560       17.559    22.508037    245.88613   -175.40333    127.10133   -48.302004    2305.7162    200025.25 
   17580       17.579    22.600726    245.14408   -175.02176    126.71775   -48.304005    2319.7781    200025.25 
   17600       17.599    22.693433    244.64035   -174.76042    126.45737   -48.303058    2329.2088    200025.25 
   17620       17.619    22.786186    244.26508   -174.56191    126.26338   -48.298525    2335.0028    200025.25 
   17640       17.639    22.890904    244.57872   -174.72897    126.42551   -48.303462    2328.0638    200025.25 
   17660       17.659    22.987651    245.65736   -175.28769    126.98307   -48.304615     2307.797    200025.25 
   17680       17.679    23.088318    246.83552   -175.90445    127.59207   -48.312373    2285.5822    200025.25 
   17700       17.699    23.181125    247.32476   -176.15777    127.84497   -48.312804    2275.4024    200025.25 
   17720       17.719     23.27588    246.82986   -175.89998    127.58915   -48.310837    2282.8816    200025.25 
   17740       17.739    23.382531    244.97173   -174.94025    126.62866   -48.311585    2313.2054    200025.25 
   17760       17.759    23.475666    243.01979   -173.93066    125.61968   -48.310979    2345.4833    200025.25 
   17780       17.779    23.573408     242.8386   -173.83586    125.52602   -48.309839    2349.6444    200025.25 
   17800       17.799    23.666793    244.06958   -174.47318    126.16233   -48.310854     2330.375    200025.25 
   17820       17.819    23.760542    244.95159   -174.92459    126.61825   -48.306342    2315.0376    200025.25 
   17840       17.839    23.857286    244.92239   -174.91511    126.60316   -48.311955    2312.5952    200025.25 
   17860       17.859    23.963001    245.11824   -175.01546    126.70439   -48.311066    2306.3956    200025.25 
   17880       17.879    24.057294    246.39865   -175.68685    127.36625   -48.320594     2283.887    200025.25 
   17900       17.899     24.15011      247.559   -176.28301    127.96605   -48.316959    2265.0877    200025.25 
   17920       17.919    24.247786    247.14897   -176.07095     127.7541   -48.316849    2272.8991    200025.25 
   17940       17.939    24.344527    245.48601   -175.21047     126.8945   -48.315977    2302.6173    200025.25 
   17960       17.959    24.448249    243.50654   -174.18296    125.87129    -48.31167    2338.7294    200025.25 
   17980       17.979     24.54206    242.08651   -173.44823    125.13726   -48.310974    2365.9184    200025.25 
   18000       17.999    24.634749     241.6643   -173.23014    124.91901   -48.311126     2375.997    200025.25 
   18001           18    24.640734    241.66727   -173.23088    124.92055   -48.310326     2376.079    200025.25 
Loop time of 24.6418 on 1 procs for 5000 steps with 4000 atoms

Performance: 17.531 ns/day, 1.369 hours/ns, 202.907 timesteps/s
98.5% CPU use with 1 MPI tasks x 1 OpenMP threads

MPI task timing breakdown:
Section |  min time  |  avg time  |  max time  |%varavg| %total
---------------------------------------------------------------
Pair    | 19.836     | 19.836     | 19.836     |   0.0 | 80.50
Neigh   | 0.44177    | 0.44177    | 0.44177    |   0.0 |  1.79
Comm    | 0.20123    | 0.20123    | 0.20123    |   0.0 |  0.82
Output  | 3.8675     | 3.8675     | 3.8675     |   0.0 | 15.70
Modify  | 0.18132    | 0.18132    | 0.18132    |   0.0 |  0.74
Other   |            | 0.1135     |            |       |  0.46

Nlocal:        4000.00 ave        4000 max        4000 min
Histogram: 1 0 0 0 0 0 0 0 0 0
Nghost:        7217.00 ave        7217 max        7217 min
Histogram: 1 0 0 0 0 0 0 0 0 0
Neighs:       287752.0 ave      287752 max      287752 min
Histogram: 1 0 0 0 0 0 0 0 0 0

Total # of neighbors = 287752
Ave neighs/atom = 71.938000
Neighbor list builds = 49
Dangerous builds = 0
unfix 2




Total wall time: 0:02:10
